% Model:              fid38.mph
% Version:            COMSOL 5.4.0.388
% Date:               Jun 8 2020, 11:58
% Table:              Maxwell capacitance - 
% Maxwell capacitance (F)                                                  
1.824955874156222E-11    -1.01937932337903E-11    -4.018444586179262E-12   -2.582229613788494E-12
-1.019379323378815E-11   1.594135958141908E-11    -2.5820605384901246E-12  -1.984849783106058E-12
-4.018444586179004E-12   -2.5820605384911703E-12  1.8248810145015E-11      -1.0193285877302435E-11
-2.582229613788522E-12   -1.9848497831069975E-12  -1.0193285877301847E-11  1.5941032759582686E-11
