% Model:              fid_800.mph
% Version:            COMSOL 5.4.0.388
% Date:               Aug 5 2020, 10:34
% Table:              Table 1 - Inverse Maxwell capacitance (es, dset2) (root.comp1.es.Cinv)
% Inverse Maxwell capacitance (1/F)                                                  
4.012936113829484E10     2.5580574758951572E10    1.2825773883160372E10    1.3019409948577341E10
2.558057475893657E10     2.9171471665400543E10    1.3011066259520782E10    1.328897549635687E10
1.2825773883141607E10    1.3011066259519632E10    4.009720605318867E10     2.5543119461862396E10
1.3019409948556675E10    1.3288975496353949E10    2.5543119461861465E10    2.9130231580108704E10
