% Model:              fid_800.mph
% Version:            COMSOL 5.4.0.388
% Date:               Aug 5 2020, 10:04
% Table:              Table 2 - Maxwell capacitance (es, dset2) (root.comp1.es.Cinv)
% Maxwell capacitance (F)                                                  
1.4606866227442025E-10   -1.1006187774685269E-10  -1.3637171721075652E-11  -7.43320486633848E-12
-1.1006187774682743E-10  1.333158246515125E-10    -7.274996831901326E-12   -5.153277278131456E-12
-1.3637171721081158E-11  -7.2749968318942986E-12  1.4599793281792992E-10   -1.101363002670947E-10
-7.433204866332562E-12   -5.153277278124378E-12   -1.1013630026708013E-10  1.3355771769661392E-10
