% Model:              fid_800.mph
% Version:            COMSOL 5.4.0.388
% Date:               Aug 5 2020, 10:34
% Table:              Table 3 - Mutual capacitance (es, dset2) (root.comp1.es.Cinv)
% Mutual capacitance (F)                                                   
5.083853792514624E-12    4.820748830296678E-11    8.215143063929665E-13    2.6631349473615505E-12
4.8207488302950187E-11   1.8911358714454708E-11   2.6388805512763486E-12   1.4643437183335455E-11
8.215143063881533E-13    2.6388805512826224E-12   5.100901442822401E-12    4.820550847993546E-11
2.6631349473379226E-12   1.464343718334836E-11    4.8205508479935205E-11   1.8956447509241688E-11
